2016
Lattice="18.55297292098419 0.0 0.0 0.0 45.37411855675496 0.0 -6.856533470798426 0.0 19.672201178717245" Properties=species:S:1:pos:R:3:momenta:R:3:forces:R:3 energy=-308.5388504634015 stress="-0.0012339272962883256 0.0007589895392636272 -0.00019501644029764007 0.0007589895392636272 -0.0003038732194206138 -0.0009640908195727007 -0.00019501644029764007 -0.0009640908195727007 1.3876628771762723e-05" free_energy=-308.5388504634015 pbc="T T T"
O        6.97015202       1.25133172       4.65583761      -0.34684225      -0.14278787       1.00156147       0.85713460       0.07667277       0.30997569
H        7.18561489       1.93785936       5.30957540       0.27770564      -0.18506145       0.10583000       0.28894297       0.10039066      -0.24774478
H        6.03464375       1.15074459       4.80244263       0.04029532       0.03749805      -0.15139691      -0.96015073      -0.23990630      -0.32792288
O        4.10750414       1.36687362       4.56696163      -0.19040687      -0.78465455       0.17597360      -0.31060655      -0.30036956       0.52035077
H        3.37401219       0.72769987       4.48927066       0.22817308       0.28542458      -0.06540231       0.20305252       0.22651256      -0.03760805
H        3.87369759       2.13271097       4.01628754       0.00444750      -0.02912520      -0.17534690       0.08859693      -0.19008713      -0.23927789
O       -0.30780576       6.76289680       4.44463476       0.30212927       0.33430207      -0.02633922       0.30007969      -0.20843059       0.78711216
H       -0.23651821       6.26993667       5.30556772      -0.04394118      -0.25421236      -0.04511970      -0.18391615       0.19299650      -1.35584833
H       -0.34321191       6.14185648       3.69630132      -0.06475657       0.07190090      -0.07832589      -0.04658260      -0.40986294       0.69846707
O        2.70226437       6.67455409       3.86907063      -0.12364822       0.45290591      -1.05217651       1.50395510      -0.55764603      -0.18207518
H        2.82341638       5.97645051       4.53283991      -0.00072683       0.16280276      -0.02100219      -0.34228661       0.14112132       0.11921912
H        1.83133080       7.02369828       3.94412619       0.09798168      -0.13526446      -0.13356600      -1.27067309       0.16414371       0.33141920
O        5.45879880       4.82274034       8.91336844      -1.47870197      -0.12483695       0.41104332      -0.20292512       0.06069136       0.54458613
H        4.51548829       4.58996363       9.00726323       0.08988018      -0.02548918       0.16718624       0.08754753      -0.13295657      -0.09396630
H        5.56384664       5.43326947       9.66290521       0.11164553       0.19821457      -0.13365185       0.27649022       0.17382296      -0.09668339
O        6.04125154       4.68668358       0.34230040      -0.67883699       0.01436855       0.99438248       0.93413426       0.01805500      -0.52987183
H        6.82678960       4.53108840      -0.23947606       0.03435535      -0.05219721       0.09854009      -0.78799765       0.31416657       0.78396952
H        5.28389627       4.27835973      -0.11670160      -0.12753022      -0.22687071      -0.00748322       0.27102793       0.27456340      -0.21673997
O        1.71458979       2.85194676      -0.68920704       0.17212311      -1.09514981      -0.35025682      -0.22518160       0.28686794      -1.14887577
H        1.65130118       2.03054438      -1.23247269       0.01689203       0.37401486       0.13102657       0.11103190       0.24598051       0.58734681
H        1.66311032       2.56705777       0.21557208       0.30360262      -0.07188300       0.42441644      -0.00369467      -0.44386311       0.94049311
O        0.93419671       2.50703657       9.15381797       0.08363182       1.28713028       1.02046455      -1.79960762       0.30679476      -1.84927158
H        1.05365174       1.77694003       9.71585416       0.13296376      -0.00424861      -0.03851170       0.08362254      -1.79440377       1.49745813
H        1.68852388       3.02868201       9.27310947       0.07440416       0.11261575      -0.12917893       1.65574023       1.75975603       0.06412831
O        4.85458079       6.18818682       6.64037881       0.71369740       0.19462098      -1.43493966       0.60307349      -0.53489153      -1.44777991
H        5.24607397       5.66485056       5.85036727       0.09150873      -0.08288822      -0.16771439      -0.66544611       1.13325645       1.06993482
H        5.18121144       5.71807511       7.41580262       0.01182991       0.10775737      -0.13140407       0.04756101      -0.41434899       0.35482680
O        6.05206154       6.67126148       2.23783574       0.13349853       0.79398340       0.61222151      -0.19287958       0.81489128       0.54271320
H        5.28930381       7.24616681       2.01468775      -0.04826853       0.03618954       0.09961944       0.67851791      -0.54275335      -0.20344449
H        6.17006619       6.03183255       1.52135042      -0.03790032      -0.14361922       0.14822199      -0.40576058      -0.16456472      -0.31357862
O        1.79440108       1.42409475       1.76565889       0.39525917      -0.03626215       0.69574529       0.43185093       0.14183199      -1.03072817
H        1.79626784       1.53075514       2.71604184      -0.22799164       0.09869098       0.45916283      -0.22654870       0.08601271       0.55449715
H        1.10155894       0.79460220       1.48891147      -0.12943736       0.05641548       0.10946058       0.20320843      -0.11835739       0.16973339
O        0.67419364       1.45561961       6.52086830      -0.25036201      -0.12117736       0.56443687      -0.35092436      -0.04666267       0.72148341
H        0.57256705       2.02178157       7.30978025       0.24329935      -0.13968871       0.00636764       0.17094545      -0.22969318      -0.19643332
H       -0.06977326       0.82541600       6.54255379      -0.19352429      -0.06175689       0.08196613       0.20396728       0.18458350      -0.21329152
O        6.70089533       2.53744587       2.23729144      -0.68011244       0.25543000       0.93531111       0.63383395       0.12091731      -1.37779845
H        6.90494824       2.22495134       1.32695986      -0.07489802       0.11833826       0.06490784      -0.13938835       0.34656805       0.65138874
H        7.00071134       1.81840584       2.78752469       0.11200150       0.35408263       0.14816437      -0.18082316      -0.28832065       0.76630038
O        4.33288475       2.87117996       7.10627206      -0.28583385       0.61683193      -0.67115316       0.11833907       0.23238529       0.52260100
H        4.12965712       2.17881654       6.48446335      -0.17905340       0.11513749      -0.00399757       0.01684879      -0.45348699      -0.88699399
H        4.27086792       2.40996087       7.95962092       0.06689704       0.16326654      -0.22349541       0.19705165       0.15260106       0.13609171
O        0.02132325       4.85387518       6.96607742      -0.62859703       0.60395478       1.03249584       1.93595608       0.18865495      -0.85993959
H        0.18064151       5.33075044       7.78355904      -0.14266282      -0.02338688      -0.05231525      -0.68620867       0.31024856       0.59049174
H        0.96951220       4.83987351       6.59372374      -0.05051173       0.22757940      -0.10699303      -1.47268884      -0.47042683       0.32301306
O        2.39945449       5.23912072       1.43745245      -0.73396468       0.08591575      -0.31057624      -0.62195175      -0.51470504       1.53641811
H        2.89868162       5.70096678       0.78813773       0.32454684      -0.26162667      -0.09346543       0.48076499       0.60012615      -0.99606128
H        2.56366002       5.71534752       2.28655529      -0.03178258       0.03514923       0.05320538       0.05047484      -0.28089521      -0.57622373
O        7.10737161       3.60474596       6.16319213      -0.00580295       0.57313081      -0.18669197       0.91592269      -0.51755230       0.97116732
H        6.27888206       3.52122066       6.65491339       0.04151879      -0.27162955       0.10697587      -0.15212093       0.12822964      -0.19133122
H        6.98308796       4.20889250       5.42818908       0.13727076       0.15743577      -0.08691245      -0.60942580       0.28435308      -0.29100531
O        4.25806905       3.41554836       2.72353162       0.24705993      -0.54160645       0.09862039      -2.15416658       0.74273149      -1.28250003
H        5.02665671       3.04084437       2.28595857      -0.06547407      -0.21179375       0.11821138       0.59786195      -0.24821232      -0.22933455
H        3.59639230       3.65408851       1.97792341       0.05342289      -0.38261830       0.15513962       1.45818872      -0.26818871       1.95791693
O       -0.12520150       4.45365140       2.72214485       1.22962525       0.75962072      -1.24415583       0.33993596       0.63578674       0.40530971
H       -0.75060067       3.94294236       2.22178552       0.01807530       0.15051614       0.04078426      -0.83190503      -0.69731945      -0.38744469
H        0.53563062       4.71541004       2.07936478      -0.07941720      -0.16084647      -0.11154401       0.56755088       0.05888913      -0.14211843
O        2.48155524       4.55106503       5.98798371       0.04564361      -0.07761829       0.57365564      -1.42164434       0.11154540      -1.87195358
H        2.34608955       3.77439694       5.40776668       0.20779457       0.00944314       0.10043552      -0.30857793       0.47059259      -0.02416135
H        3.21628334       4.28971236       6.49676244      -0.06656182      -0.12654736       0.32253679       1.58739065      -0.48656760       1.28131939
O        8.99129136       7.30264631       1.28643689      -0.78634192      -0.05945971      -0.42366865       0.53314086      -0.42534818       0.66727409
H        8.63305577       8.01431435       0.75205840       0.15833727       0.19897066       0.16506738      -0.42106074       0.25913015      -0.41116793
H        8.40136143       7.23284827       2.05096559      -0.06175131      -0.20370729       0.30582559       0.07221240       0.04207853      -0.20001698
O        2.35273142       7.35346830       7.60141755       0.56659160      -0.38728801       0.29118268       0.70921105      -0.91839943      -0.90633043
H        2.51314177       7.92386443       8.34397304      -0.11166849      -0.06713314       0.07609604       0.22085146       0.51009940       0.70761301
H        3.24283614       7.16902010       7.20719260      -0.07239122       0.31290037      -0.09245734      -0.92116827       0.10595155       0.21771769
O       -2.12663654       0.72190175       7.80506731      -0.21677895      -2.09213305      -1.12553817      -1.13171832       1.38948088       0.19333888
H       -2.99598810       0.36055484       7.54340689       0.14254834      -0.00478933      -0.13223053       0.48289342      -0.00140378       0.05485209
H       -2.31100066       1.67646860       8.08213009       0.08329090      -0.05981555      -0.34341987       0.55244792      -1.51609595      -0.27776664
O        4.29148027       1.14344704       0.52912734       0.43196761       0.77406217      -0.39494333      -0.47441032      -0.52667747       0.91204225
H        3.43456317       1.16009473       1.00577706       0.20439340       0.12294377      -0.21429475      -0.35341416       0.50823940      -0.42802438
H        4.77376984       0.70826810       1.25495558      -0.09520705      -0.02739636      -0.01488584       0.93845443      -0.00080285      -0.20902971
O        5.99657568       5.11410150       4.42690763       0.24547026      -0.34092309       0.20253735      -0.62737310      -0.40882706      -0.84927447
H        5.53328039       4.37850466       3.95133397      -0.22413861      -0.03827344      -0.10237963       0.19570854       0.76733334       0.36163170
H        6.02908750       5.80503560       3.72775805       0.05730940       0.10250697      -0.02594119      -0.00051376      -0.14723392      -0.01186197
O        1.35423744       2.48870869       4.18741319      -1.09625309       0.03913095      -0.11162549      -0.79199496       0.68557968      -1.12008127
H        1.13575446       2.10398263       5.03759163       0.02206376      -0.26106665       0.14310113      -0.44964170      -0.47673073       0.46311330
H        0.49380327       2.73945113       3.75535304      -0.12888191       0.20281959      -0.07797234       1.37867670       0.10565685       0.73838916
O        7.65553346       1.24501875      -0.23406338       0.06130306      -0.48804742      -0.53329433       0.71624797      -0.17634369      -0.22981558
H        7.10778686       0.58913793      -0.67879655      -0.21907232      -0.05066849       0.03008305      -0.49104867       0.03423525      -0.23871871
H        8.41680275       0.70023077       0.05708896       0.06728687      -0.00341606       0.14404314      -0.64569520       0.52265072       0.32363895
O        3.28201141       6.56246300      -1.14749834       0.07231965      -0.46836186      -0.50751658      -0.93625667       0.50297874       0.15736175
H        2.37433519       6.91806330      -1.34428481       0.12320911      -0.08911053       0.12104643       0.67417535       0.17705723       0.28954474
H        3.25563360       5.74024362      -1.63319834      -0.15165430       0.11079302       0.28760622       0.24811171      -0.68102448      -0.45664227
O       16.02495367       1.24599761       4.23020225       0.38129081       0.61969294       0.78572717       1.66359430       0.33951271      -1.04546394
H       16.27883824       1.71233892       3.38268019      -0.11832644      -0.00876945      -0.20308422      -0.10447768      -0.46376983       0.53032577
H       15.12916513       1.51832257       4.36987012       0.03692818       0.17921281       0.01531302      -1.57806881       0.23343317       0.54019743
O       13.41149760       1.93888736       4.65581691       0.32254544      -0.96640815       0.15241965      -0.66489843       0.20549202       0.75004350
H       12.72068170       1.26445692       4.87223567       0.08449730      -0.21760988       0.06096158       0.62316702       0.42911406      -0.26928570
H       13.38055880       2.60512753       5.39621493      -0.13312287      -0.02895904      -0.28036515       0.12087196      -0.83773884      -0.50240942
O        9.10374229       6.83201048       4.44066469       0.09366962       0.16208670       0.64159686      -0.04354451      -2.46815198      -0.66009127
H        8.29592121       7.33031969       4.59293616      -0.21650926      -0.10326651       0.15525575      -0.56317969       0.36521974      -0.09783663
H        8.83762037       5.92188731       4.03756693      -0.04338466      -0.31092046      -0.00372921       0.63421984       1.72416495       0.63103084
O       11.69821427       6.78439072       4.11486364       0.19737141      -0.66797250       0.12169779       1.34515167      -1.04118949      -0.15983271
H       10.77461795       6.97674333       4.21578132      -0.15051352      -0.20200039       0.07352408      -1.20247501       0.47031848       0.09862098
H       12.22185751       7.55027629       4.35122786      -0.02025702      -0.06194850       0.02738197       0.34394704       0.67199872       0.10723608
O       14.90890126       5.43305279       8.95178598       0.26991308      -0.99454230       1.01555814      -0.35511370      -0.17717985      -0.63041361
H       14.59803663       6.14384193       8.33428381      -0.20308989      -0.06177708      -0.15781723       0.27692998      -0.88525912       0.40058212
H       15.13232559       5.89833073       9.75616054      -0.11539826      -0.02992272      -0.22134350       0.08485669       0.46183077       0.25908243
O       15.42575848       4.97697741      -0.02450952      -0.23809389      -0.24086398       0.15269885       0.19069495      -0.21141687      -0.69299657
H       16.18262419       4.68654895      -0.56943300       0.00428095       0.16490187      -0.18231074      -0.19425734       0.11059705       0.49521523
H       15.00050736       5.64871763      -0.59576902      -0.07242307       0.06333454      -0.02885195       0.18480541      -0.12745171       0.21602287
O       10.81140609       2.92561315      -0.09439469      -0.39598275      -0.24103407      -0.32634475      -0.55659339       1.20072809      -0.03478028
H       10.21124164       3.70203159      -0.26354837      -0.06995917       0.06248891       0.07950562       0.25467593      -0.92757970       0.17972213
H       11.71304314       3.28114748      -0.17552492       0.17626036       0.19978934       0.23539376       0.04625545      -0.52883162      -0.16743643
O        9.91439801       2.83601956       9.58129161       0.02713381      -0.68789092       0.89299322       0.28226108       0.81478876       0.37935756
H       10.05075310       2.55019235       8.68364252       0.01155007       0.30935332      -0.04346321      -0.25375740      -0.44995328      -0.69273248
H       10.00767318       2.06106252      10.16356934       0.45307657       0.06349918      -0.08511953      -0.08258158      -0.09656544       0.14107331
O       13.97368610       6.96953663       6.89911449      -0.61406314       1.07753681      -0.32026941       0.37937571       0.50547060       1.02187638
H       14.11009606       6.39757962       6.14858087      -0.06729897       0.14942491       0.12347699      -0.18334114      -0.26287100      -0.88747307
H       13.04287849       7.08328136       7.11455393       0.08278142      -0.04917280      -0.32351301      -0.41437797      -0.11569476      -0.12643463
O       15.90633565       6.52600691       2.23838738       0.48340738      -0.29642654       0.13640335       0.20011399      -0.52287991      -0.23602209
H       15.70653875       6.33688421       3.16587920      -0.10599716      -0.11886420       0.06148666      -0.17489227       0.09016067       0.09752213
H       15.75657747       5.69059830       1.75876171      -0.12279579      -0.05395600       0.01194755      -0.13187675       0.41021876      -0.02023188
O       10.94447793       1.31414395       2.37934889       0.44134953      -0.31464200       0.61011744      -0.28783192       0.62838928      -1.90485725
H       11.86710715       1.01279544       2.22819605       0.08805163      -0.23674508      -0.20913214      -0.07506637      -0.12132037       0.19315045
H       10.75566526       1.72215809       1.47260552       0.16449864       0.17274833      -0.20942991       0.31301102      -0.18782485       1.73743819
O        9.14523015       1.50077370       6.87897138      -0.46524451       1.16972203      -0.08607126       1.21314434      -0.96432396      -0.17519119
H        9.53372887       1.78986160       6.03616637       0.00323023       0.09089777       0.02416370      -0.30175868       0.64061053       0.08520818
H        9.65588357       0.66392016       6.96712654      -0.03098240      -0.00407962       0.05444992      -0.72268731       0.55217807       0.56178665
O       16.45349534       2.65925384       1.98916300      -0.63959291       0.44695368       0.37127736      -0.22014327       1.45067406       1.32050723
H       16.44041208       2.15339986       1.18246286       0.01763155      -0.23723428      -0.15962576      -0.30074115      -0.24506964      -0.90087361
H       15.64016114       3.23827053       2.09829805       0.26062252      -0.17998793      -0.07686734       0.72752724      -1.19493192      -0.65083193
O       13.54280574       3.41044808       6.93987550      -0.42740267      -0.00695492       0.42029635       0.84262943      -0.64772083       0.37441704
H       12.95984755       4.16778215       6.87302844       0.05510412      -0.04145767       0.03514444      -0.23874018       0.43919260      -0.09998702
H       14.46764957       3.70543515       7.05038822      -0.14008724       0.38342312       0.03253307      -0.57486555      -0.03578560      -0.14149267
O        9.16282163       5.53363138       7.08227366      -0.58581085      -0.50201914       0.68648473      -0.09918732      -0.67646646       0.66998502
H        9.21150710       6.15535525       6.36268042      -0.25182237      -0.17793997      -0.10489415      -0.31326621       0.49601063      -0.69402577
H        8.48768651       4.87384241       6.84405525      -0.01135460      -0.11313161       0.09785171       0.03789908      -0.05039450      -0.01327127
O       11.85104150       5.00308521       2.02362688       1.06878666       0.33019427       0.01753649       0.88948785       0.21711471      -0.60040778
H       10.95748598       4.70155398       1.99927465      -0.13093507      -0.05244421       0.03180477      -1.17191267      -0.38020670       0.32840510
H       11.91740276       5.64375202       2.74179800       0.01424417       0.15368085       0.03290475      -0.26273986       0.33389711       0.32823504
O       16.17932421       3.79538361       6.08016254       0.71893614       0.41408248      -0.39009084       1.44213987      -0.40253629       0.06838494
H       16.54041975       3.20940597       5.39844647      -0.08640122       0.01001607       0.01862042      -0.73243707      -0.24590997      -0.12575177
H       17.02379815       3.94106183       6.56353806      -0.01375255      -0.00620323       0.01294925      -0.61364135       0.63714664       0.03584518
O       14.02721303       3.57248012       2.45560264      -0.84646071      -0.44184920      -0.41873495      -0.35190631       0.54608838       0.13326616
H       13.21977561       4.01595536       2.13378920       0.25744532       0.04147341      -0.05575732       0.32306503       0.20909016      -0.03940626
H       13.64601049       2.79980411       2.88613622      -0.05817849       0.05954989       0.02386535       0.20904996      -0.38877601       0.44158982
O        9.04616358       4.37412699       3.25205404       0.09501794      -0.49737763      -0.13367469       0.97536889       0.38786571       0.63829543
H        8.31247957       3.93064536       2.84729009      -0.07497037      -0.17715700      -0.01276349      -0.88646558      -0.58051941      -0.36620452
H        9.44616003       3.74791542       3.91030740      -0.17692279       0.21186815       0.14853510      -0.23869576       0.22508292      -0.43916714
O       11.56593504       4.80715983       5.91882820       0.77606468      -0.05963003      -0.29608268      -0.21794418       0.05886425       0.49807568
H       11.76077858       5.55166349       5.32046203       0.42678979       0.00120368       0.05963540      -0.23720942       0.08605519       0.05693997
H       10.75073130       5.03067054       6.42499988       0.00752214      -0.16552099       0.15887679       0.56695830      -0.11246625      -0.32106814
O       18.25842825       6.87776991       0.77361368       0.14990052       0.28744592      -0.77636841       0.36898158      -0.38332428       0.84988410
H       17.56952257       6.71725887       1.42826215       0.13307655       0.04931745      -0.22003429      -0.33835941       0.05985995       0.46914548
H       17.84202963       7.49806483       0.19255962      -0.15645358       0.14079117      -0.06645549      -0.29656005       0.83344343      -0.90700351
O       11.50396368       7.15341452       8.16822025      -0.14718256       0.26200841       0.51079966      -1.21395342       0.21136054      -0.43046335
H       11.58139515       6.32436474       8.66930248      -0.42392602      -0.00688487      -0.18691030       0.06427599      -0.04439504       0.05056309
H       10.56528553       7.19693219       7.83643067      -0.00471583       0.06222740       0.00464562       1.46232307       0.16827796       0.39927424
O        6.72345163       0.84897380       8.00915953      -1.24567770      -0.13846323      -0.23438087      -1.92114675      -0.23131539       2.20971075
H        7.38715630       1.17051482       7.45409963       0.01257524      -0.09214376       0.09444755       1.99999668       0.78900937      -1.65853469
H        6.70833548       1.51599082       8.75762145      -0.00206328      -0.11487718       0.37882630       0.03250958      -0.49958789      -0.72149849
O       13.51369715       0.92445273       1.72795106       0.66629995      -1.03086921       0.71142688       0.35285464      -0.85630888       0.41379935
H       14.21711198       0.25280474       1.66004813      -0.02124514       0.29186655      -0.33408822      -0.32424185       0.22730876       0.00854156
H       13.71349272       1.60935802       1.08729337       0.01231528       0.11547440       0.02919213       0.04828454       0.16079323      -0.56178841
O       14.74627696       5.61325469       4.67509969       1.60605089      -1.24481504      -0.46741248       0.41083085       0.94651640       0.36506696
H       14.18486298       5.04071970       4.17226477      -0.12374176       0.16191342      -0.05864862      -0.35507593      -0.79521072      -0.50153600
H       15.35697128       5.05007977       5.17519658       0.08541999      -0.02011818       0.01755054       0.10924656      -0.35924867      -0.05762057
O       10.46711019       2.69480833       4.81789063      -0.10076409       0.28658667       1.19272059      -0.18883220       0.09355318      -0.00382096
H       11.14082514       3.32609469       5.13650950       0.04090134      -0.07082714       0.11107701      -0.24380371       0.02704626      -0.05843152
H       10.80375960       2.27611274       4.01931933       0.07403573      -0.21027206       0.28963881       0.22679698      -0.33019870      -0.29335945
O       16.73676227       1.08006762      -0.31182429      -0.66319029       1.00072776       0.99564245      -0.66433688       0.31466725      -0.12321912
H       16.59051594       1.54307347      -1.18763427       0.17301033       0.10980038       0.20569827       0.41562119      -0.23560140       0.28448169
H       16.01290023       0.45218373      -0.20326146      -0.25633603       0.16085600      -0.05417923       0.00341263      -0.22530209      -0.03164232
O       12.65723959       6.25699345      -0.29146831       0.18405930      -0.29286789      -0.89440756      -1.15752239       0.69337198      -1.29204505
H       12.24523261       5.79778791       0.42743511      -0.08013254      -0.06366378      -0.08986923       0.04102847      -0.85867321       1.15686650
H       11.86085172       6.76173454      -0.61301159       0.03774071       0.33359340      -0.07423368       0.87379589       0.03517815      -0.13158558
O        7.08991617       8.46127224       4.66415962      -0.77311454       0.03463348      -0.63922478       0.24781934       0.31218855       0.15502626
H        6.14698952       8.29032781       4.73814933      -0.02838728      -0.09073802      -0.16510459      -0.23141028       0.21197554       0.10434597
H        7.27481936       9.22146159       5.25652642       0.26589303      -0.08619129      -0.20118610      -0.50837895      -0.11587175      -0.38183348
O        4.16119452       8.96355528       4.51839605       0.31497088      -0.65066964       0.74066641       0.54736987      -1.20181643       0.90996033
H        3.67322461       8.15073660       4.27920848       0.06510987      -0.20396219      -0.06003787      -0.02786469       0.50612131      -0.07076480
H        3.88726220       9.70519679       3.99073454       0.03334353       0.06322415       0.06583117      -0.40735373       0.26820389      -0.73389925
O       -0.11621990      13.89904894       4.18389318      -0.81055764      -1.31681851       0.23770005       0.18804535      -0.41028074       0.35588786
H       -0.72538849      14.61814437       4.01308598       0.13479787      -0.20111475       0.20617131      -0.31345119       0.57323240      -0.05888727
H        0.80050472      14.21594804       4.05525620      -0.09356651      -0.28030634      -0.02480748      -0.36741536       0.09383530       0.19341759
O        2.53742463      14.12527071       4.37099311       1.68325472      -0.12141608      -0.29589439       0.13826909       0.09308398       0.11615230
H        2.63902195      13.33728406       4.91318773      -0.08484755       0.14256867       0.03508092       0.11036673      -0.12307074       0.61347176
H        2.71264778      13.79832645       3.48573644      -0.06151944       0.01305761       0.01263586      -0.00424140       0.16089510      -0.59499359
O        5.34812960      12.35871851       9.18215887       0.97012095      -0.40865241      -0.09864672      -0.32417368       1.28805687       0.10140046
H        5.67500028      13.07325666       9.77854142      -0.05680245      -0.25272777      -0.01856629      -0.53063147      -0.73202375      -0.42858749
H        5.87616730      11.55411230       9.34571740       0.03809079       0.13512999      -0.15606051       0.16087740      -0.08730988       0.25687391
O        6.04818646      12.39516485       0.01724636      -1.01858881      -0.71955639       0.20532208       1.40402388      -1.33870539       0.47796957
H        5.92367970      12.93718393      -0.76918510       0.02748532      -0.08651754       0.08803688      -0.18615661       0.96141177      -0.64763774
H        6.99028470      12.08146889      -0.12472316      -0.20047842       0.01637075      -0.15229978      -1.06872066       0.39350497       0.31603783
O        1.19134736      10.28487159      -0.03467592       0.31613886      -0.30718384       0.08096555      -1.24165795      -0.41409458       1.98310759
H        1.22142745      10.17765896       0.95935926      -0.20408294      -0.01790489      -0.21880992      -0.19604158      -0.54996043      -1.36364599
H        1.97724408      10.76444082      -0.19124335       0.14999245       0.14558649      -0.09451911       1.73305316       0.96691344      -0.67323023