1944
Lattice="19.981709577095963 0.0 0.0 0.0 20.349260749984307 0.0 0.0 0.0 41.37881742138223" Properties=species:S:1:pos:R:3:momenta:R:3:forces:R:3 energy=-305.3538005694632 stress="2.3797858205318286e-05 -0.0004369906598106616 0.0005279488596602396 -0.0004369906598106616 -0.000248316435294115 -0.0009874156409172034 0.0005279488596602396 -0.0009874156409172034 0.00042361841200079287" free_energy=-305.3538005694632 pbc="T T T"
O        2.97224932       2.26757696      20.60144775      -0.61318241      -0.76899927       0.52493524       0.46502499       1.24038200       1.26202183
H        2.27271703       2.08746145      21.24861695      -0.15413953      -0.04391782       0.12333908      -0.12732294       0.02371600      -0.02109248
H        2.89666328       1.67156365      19.88086431       0.21312927      -0.07207443       0.01243679      -0.40064811      -1.24613096      -1.09356526
O        4.70245740       1.49965697      23.74140571      -0.31717148       0.74643199       1.11576257       0.05172682      -0.11918194       1.53472956
H        3.90702342       1.20405087      24.24015445      -0.03529161      -0.06963484       0.07799881      -0.08544465       0.36431503      -0.27783956
H        5.31864327       1.53876181      24.54503940       0.10262857       0.10965365       0.04687922      -0.46477645      -0.32873110      -1.24609024
O        6.02152747       4.86190720      26.13768293      -0.24210434      -1.04006639      -0.03951059       0.29076651       0.54237250       0.03562042
H        5.88555272       4.42695820      26.98269739      -0.24490657       0.27953791       0.16315693      -0.06030751      -0.28232218       0.52652850
H        5.33535186       4.47198578      25.59910988       0.07124792      -0.12286209       0.16007470      -0.44806228      -0.01237327      -0.63216718
O        1.16007621       4.63287960      24.24651765      -1.01837849       0.36673907       0.59003758       0.10925702       0.00850808       0.93732462
H        0.73811451       4.94765542      25.08800758       0.28797366      -0.12479197      -0.10920570       0.33519229      -0.31617241      -0.83739300
H        2.10818030       4.43293592      24.40346460      -0.35279859       0.02914122      -0.01683737      -0.36875594       0.20831832      -0.00839983
O        4.48893738       6.09888584      22.08473165      -0.23164144      -0.23137605       0.68089352       1.06300273       0.14436227       1.01263202
H        4.21710768       5.73604133      21.25734793       0.03231118       0.11917961      -0.02446213      -0.74313875      -0.34066245      -0.99066871
H        5.46523121       5.99344185      22.08453534      -0.08480303       0.09647498       0.14534043      -0.20465730       0.34351396       0.06785014
O        3.92296292       4.15850819      23.99360858      -0.85807618       0.51538182      -0.25038271      -0.07255850       0.56836553       0.27091700
H        4.09665095       4.74916756      23.24452794      -0.05283944       0.04437912      -0.11137539       0.01099757       0.38937404       0.00605137
H        4.19803877       3.29921497      23.67646837      -0.14607027      -0.10683191      -0.02720137       0.07490955      -0.85000123       0.03917696
O        0.66099120       5.75125371      21.82920166      -0.75511501      -0.95083360      -0.41487481      -0.74528437       0.11539425       0.33692186
H        0.99054568       5.59143813      22.72699487      -0.03425202       0.29019003       0.22174247       0.09776186      -0.22881614       0.11947886
H       -0.32141298       5.75320748      21.98489018       0.00738976       0.09156137      -0.14095089       0.91062267       0.32946132      -0.63367105
O        2.62627531       1.08082320      25.57012087       0.14320262      -0.00551005       0.21759889      -0.12055154      -0.88386973      -0.17716609
H        2.80378131       1.70568880      26.28097634      -0.02592115       0.10764678      -0.02689073      -0.17361868       0.90461360      -0.08418321
H        2.78234365       0.24636830      26.04329400       0.18531045      -0.07259467       0.25331009       0.02848809      -0.40783793      -0.21129214
O        2.53197689       6.00682617      27.35696951      -0.03290987       0.00248148       0.41046354       1.05986163       0.34891201      -0.41491408
H        2.40021667       6.64250652      26.61193177      -0.00697876      -0.32328698       0.13684225      -0.52656780      -0.16814589       0.23712138
H        3.46708780       6.17783371      27.60094819      -0.03344449       0.08593738       0.10725847      -0.66293521      -0.40942150       0.25235810
O        6.16025639       1.19075351      25.97893611      -0.40975736      -1.19376255      -0.86760873       0.61015970       0.57108632       0.10937184
H        7.07586994       1.41184352      25.68568013      -0.17183194       0.05753459      -0.00291249      -0.66688493      -0.75197557       0.41584805
H        6.16274163       0.25826214      26.28404251       0.05402038       0.08703146       0.05070836       0.24843452       0.25120696      -0.45466984
O        0.93581645       2.25259545      22.61215761      -0.50016387       0.21301585       0.03497053      -0.09476688       0.24231757       0.41647952
H        0.97795442       1.39096830      23.06800676      -0.23822226       0.01743758      -0.18788656       0.06187194       0.29782776      -0.45234037
H        0.92004835       2.95468906      23.28810488       0.15759530      -0.11095130       0.00409402       0.06010215      -0.13058574      -0.18461240
O        5.68110086       2.76309078      21.16547464       0.28003875       0.16093981       0.02642943       1.20148239       0.26669086      -0.12921837
H        4.79139693       2.45331711      21.28261473       0.37001936      -0.03144366       0.09276808      -0.91667930      -0.22663108       0.24234379
H        6.19408075       2.72237599      21.99686185       0.11446748      -0.03186297       0.13904463      -0.18436413      -0.27016006      -0.40329797
O        9.86374082       2.85915943      20.86248171      -0.67685836      -0.04616199       0.33894475       0.43602400      -0.42069643      -0.03341323
H        9.78224052       2.07721433      20.28309498      -0.10158484      -0.02438417      -0.24201417      -0.24734927       0.19901679       0.08019296
H       10.83366578       2.87787230      20.99425210      -0.08383046      -0.23686922       0.16940504      -0.37591871       0.03579392      -0.01444851
O       11.10175612       1.52238709      24.25260511      -0.32305548       0.50471770      -0.31337388       0.92463973      -0.03919824      -0.30286135
H       10.20918281       1.26794046      24.53799566       0.19917532       0.12122664       0.00003726       0.05202878       0.05091509       0.41244653
H       11.71762162       1.18022869      24.93848090       0.33721320       0.11460418      -0.11699419      -0.42693231      -0.01882706      -0.41150506
O       12.72510715       4.89174247      26.49711738      -0.06650159       0.58098295      -0.39014443       0.72906318      -1.00017517      -0.91201826
H       13.44608219       4.84064898      25.80461991      -0.28867231      -0.41668976      -0.04292713      -0.88484833      -0.11133826       0.79801214
H       12.65645083       5.81008683      26.72545876       0.12496535       0.15815366       0.00441777       0.04373694       0.88839895       0.10802958
O        7.89556026       4.48313585      24.43387493      -0.31984013       0.78403536       0.04138406      -0.78291624       0.23007204       0.09182641
H        8.84728167       4.38563781      24.48214315      -0.01769952       0.06800826       0.01796082       0.59585287       0.21101195       0.58903918
H        7.46374769       4.68661031      25.30348621      -0.19064565      -0.05867542       0.13235973       0.44569354      -0.31095632      -0.65560325
O       11.31197240       6.37851799      22.63286189       0.33004438       0.92649103      -1.68217793      -0.22879401      -0.68908660      -0.24785943
H       10.81885294       6.27766517      21.78331062       0.06256364      -0.08979618      -0.31673019       0.05592904      -0.33926185       0.85269695
H       11.19072016       5.57357890      23.19854643      -0.21445400      -0.02670310       0.10958030      -0.18083588       0.54540333      -0.77775267
O       10.75874568       4.28510131      24.53060501      -0.36445231      -0.16408047      -0.10328968      -0.75227440       0.66894225      -0.85064304
H       11.22289278       4.68629598      25.25750670      -0.10583070       0.04269680       0.26575534       0.52112904       0.14601993       0.76295244
H       11.09500390       3.39289348      24.46160941       0.19257792       0.23117392      -0.04622097       0.13349114      -0.84726130      -0.16041235
O        7.16972897       6.18408290      22.40428205       0.44235929      -0.29964730       0.57642879      -1.41498288      -1.01980739       3.15563187
H        7.38720999       5.52790468      23.18021271       0.29761812      -0.12295785       0.03336038      -0.00215785       1.45221280      -1.75506817
H        7.86777015       6.17774620      21.79309739      -0.10652510      -0.05798767       0.03032454       1.68349440      -0.31127328      -1.36867462
O        8.97940536       0.98987356      25.64106103      -0.25579754      -0.00303578       0.60067184      -0.89538122       1.68963747      -0.24131202
H        9.01632980       1.61673353      26.39781786       0.01744023       0.35878811      -0.10134831       0.26356120      -0.13328430      -0.23077792
H        9.09636622       0.15835618      26.05917010      -0.09714174      -0.09449484      -0.10221548       0.35056545      -1.58731788       0.73896096
O        9.25711347       5.23155784      27.22947745      -0.64282172       0.41922159      -0.69285246      -0.08850691       0.55973736       0.84149150
H        9.98562168       5.45951315      27.84657574      -0.16010376       0.01849678      -0.10828752       0.16499527      -0.06640858      -0.45862947
H        8.54082319       5.65345493      27.74420255      -0.02324592      -0.16155876      -0.04641423      -0.09446129      -0.20971701      -0.17406060
O       12.95965647       0.45621792      26.22099003      -0.16594927       0.57471644      -0.16891898      -0.12626333       0.19982125      -0.52271361
H       13.83317703       0.74635056      25.92973863      -0.24627891       0.08129774       0.16182296       0.35989813      -0.21726086      -0.38569276
H       12.71375698       1.15023436      26.84402406       0.22984089      -0.17446112       0.06681355      -0.41303955       0.14938807       0.60853257
O        7.86548769       2.40419169      22.87215217       0.27404452      -0.57069841       0.64611675      -0.61681938      -1.85544546      -0.85226038
H        7.72118480       3.09255466      23.50651409      -0.06533205       0.08444079      -0.01150357       0.30624321       1.05272756       0.60776168
H        8.55659581       2.63298788      22.24310738      -0.15242998       0.18261959       0.22670167       0.31335932       0.30480047       0.02571463
O       12.62648802       2.35499456      20.48899961       0.10893329       0.60040139       0.12248133      -0.07338810      -0.09643318       1.11929510
H       12.90797749       3.06686498      19.89141980       0.16524232       0.16498754       0.25192492       0.43187314      -0.14236587       0.65519651
H       13.14926962       2.36397578      21.34069095      -0.02400337       0.13871172       0.09220993      -0.17264242       0.40174769      -1.31471247
O       16.42593494       3.52355127      20.41506946      -0.07802990       0.82839455       0.44544302       0.71637677      -2.51300113       0.07174829
H       16.36872225       2.97756288      19.59565974       0.11391285      -0.16327259      -0.01371777      -0.26842435       0.56792567       0.75541814
H       16.12950865       4.39515854      20.26314905      -0.12171350       0.08794367      -0.04577029      -0.60466591       1.75823901      -0.63119064
O       17.72820279       1.98822321      23.73958836       1.46602406       0.87093816      -0.63512595       0.21976470       0.20386801       0.49281150
H       17.82292914       1.31251347      23.05427243       0.50038225       0.02150438       0.20826526      -0.10218792      -0.05168015      -0.15335327
H       18.51469715       1.86531402      24.30499831       0.12286229      -0.08728397       0.09572146      -0.25227605      -0.18079125      -0.22862646
O       19.14504213       5.28849865      26.16138849       0.02042836       0.89390093      -0.64809233      -0.35592984       1.52236990       0.36244448
H       18.84447649       6.25296033      26.21085340      -0.27018110       0.04224907       0.04803371       1.00093222      -1.34782272       0.08365769
H       18.49351840       4.94906362      25.53146079      -0.08138058       0.14850890       0.06308895      -0.08831321      -0.20067237      -0.21437447
O       14.53086004       4.45495993      24.38440771      -1.07445476      -0.20067840      -0.36791932      -0.09765504       0.70708716      -0.80815435
H       14.31556893       5.24168808      23.81408361      -0.16610689       0.17245145      -0.02325670       0.24184968      -0.82447623       0.49757460
H       14.53208969       3.69623262      23.76131138      -0.08820155      -0.17802132      -0.19398319      -0.05208917       0.19468006       0.32058693
O       18.01262671       6.29782736      22.21089514      -1.32540574      -0.33409349      -0.30337698       0.30120614       0.39668317       0.09532325
H       17.80194427       5.83547104      23.02784466      -0.08554529       0.05614840       0.10695381       0.16533046      -0.38706880       0.71100692
H       17.22119268       6.11486326      21.71442850       0.00101561       0.09774492       0.16056997      -0.56184291       0.19730295      -1.09098107
O       17.41679721       4.75160937      24.24493575       0.45338527      -0.09540290      -0.52058667       0.55688059      -0.63538348      -0.30259030
H       17.56510996       3.84829346      23.87710749      -0.11350507       0.02324662      -0.01528488      -0.49143299       0.43710451       0.31852370
H       16.50966464       4.79880146      24.55297736      -0.07365329      -0.00252696       0.19783073      -0.53732580      -0.38094047      -0.02943470
O       14.05894017       6.61748729      22.66246986      -0.61713626      -0.51739424      -0.04788808      -1.14752161      -0.98855834      -0.85730679
H       14.32406643       7.51396341      22.76525274       0.16681946      -0.08673419       0.18347158       0.62019125       1.51646984       0.42911720
H       13.11980207       6.71317424      22.36433382      -0.13942023       0.39345408      -0.22509963       0.59189251      -0.50933524       0.47291269
O       15.57994943       0.95854541      25.66866448      -0.91121110      -0.27797831      -0.90583264       0.97039060       0.29688617      -2.25446641
H       15.68186934       1.58931289      26.37794071       0.37282890       0.08234834      -0.01787458       0.02990971       0.71616142       0.66407499
H       16.19683414       1.32352277      24.96575183      -0.21375050      -0.00052350       0.04858148      -0.99060341      -0.56589036       0.81544502
O       15.98259919       5.58643460      27.15832132       0.32110056       0.22224151      -0.11461693      -0.42658673       0.81561057      -0.74543940
H       16.78010527       5.86978599      27.62075884       0.22315824      -0.05629528      -0.14063351       0.24501808      -0.25371787       0.19334771
H       15.87087508       6.27551732      26.45220742       0.18627170       0.03936586      -0.06416549       0.08859405      -0.47710054       0.64487840
O       19.68860745       0.99587288      25.47431060       0.17601506       0.33799337       0.38241742      -2.91758782       0.51844526       0.03731169
H       20.61606937       0.94707958      25.49655744       0.04801498       0.00255709       0.12342601       2.23478939      -0.44500588       0.19758638
H       19.26106240       0.14673781      25.69781876       0.04151284       0.15262987      -0.08857574       0.86215964       0.21685438       0.05276453
O       14.68020439       2.35730290      22.44763485      -1.19622232       0.03450355       0.16850833       0.26111896       1.98492313      -0.45422233
H       15.29215673       2.73239183      21.76515794      -0.20415856      -0.19778183       0.13950536      -0.34788028      -0.69352429       0.60520292
H       14.76733346       1.40163560      22.51242440       0.10296307       0.01923278       0.19459209       0.10470147      -0.67240534      -0.19139863
O       19.15463032       2.93053629      20.45690759      -0.10160008      -0.51242113       0.50318103       0.92877912      -0.35696989       1.11673945
H       18.23996645       3.10397822      20.67898203      -0.00511328       0.01292481      -0.00108690      -0.76633279       0.10651414       0.06629572
H       19.58828062       2.71803866      21.32871224      -0.26325188      -0.09536699      -0.08105475      -0.19100237       0.28175166      -1.04413658
O        2.13248071       7.97159291      21.00678636       0.11131421       0.79496107      -0.95687746      -0.36740944      -0.87019263       0.24517110
H        1.99982623       8.06620295      20.05323398      -0.27912053       0.29452005      -0.08421947      -0.17894408       0.13299967       0.16276508
H        1.55766995       7.20662837      21.28657563      -0.04791507      -0.04610111      -0.07016076       0.52185167       0.69465757      -0.59003329
O        3.85470415       8.19980096      23.91112741       0.11770260      -0.03301630       0.67802546       0.61588547      -0.08931645       0.28634051
H        4.51712516       7.94801383      24.57811522       0.10942472       0.25354297      -0.06000606      -0.48471654       0.48421624       0.63094051
H        4.08578572       7.50946241      23.28857034      -0.07678794       0.06525864       0.00124433      -0.48606991      -0.31725792      -1.00456645
O        6.13840389      12.00543348      26.27448176       0.52503935      -0.31003307      -0.44813108       2.17785538      -0.78836964      -0.60509608
H        7.11077853      11.96133271      25.95911894      -0.07803772      -0.19500809       0.20043911      -2.14349391      -0.56460342       0.53869251
H        5.97361249      12.93085788      26.12802453       0.09715208       0.15380161      -0.04300461      -0.44557319       1.04412531       0.16289169
O        1.50188741      11.10080804      24.23241615       0.14583256       0.99615046      -0.36357836       0.04038114       1.02651898       0.51072979
H        1.32895755      10.28244422      23.74023075       0.11503571      -0.12803762       0.10559285      -0.14346909      -0.35587773      -0.10167794
H        2.45975441      11.18778889      24.34344069       0.03491144      -0.12036245      -0.16043642      -0.07602081       0.04825306      -0.18301316
O        4.84541792      12.83558894      21.94118728      -0.72228367      -0.17099076      -0.94932981      -0.12184183      -0.27408032       0.43272526
H        4.55758758      12.16166937      22.59508411       0.00443980       0.16476773      -0.00551699       0.22145259       0.25518025      -0.29131717
H        4.38225536      12.57470111      21.13510134      -0.14922079       0.09200289      -0.20535389       0.22964128      -0.03326603       0.18755946
O        4.32047439      11.07188003      23.98479395      -0.16414298      -0.16622592      -0.44908115      -0.02933298      -0.19240979       0.32822790
H        4.91871052      11.25188594      24.72426529       0.04642166      -0.02728903       0.13339661       0.07177595       0.08354395       0.11218829
H        4.24080290      10.10430143      23.94432838       0.08764227      -0.01275539      -0.11148442       0.12816577       0.00399817      -0.22545816
O        0.56360380      13.28078286      22.66723373       1.48963252      -0.84288867       0.36014236      -0.04651680      -0.71641687       1.19100639
H       -0.43892106      13.41895626      22.60643374       0.07445104       0.24858620       0.04880886       1.29801796      -0.30683803       0.37773346
H        0.83450438      12.53694899      23.30813441      -0.00008186       0.23173035      -0.07270482      -0.64712199       1.24722421      -0.99153144
O        1.73989232       7.87892130      25.58136407      -0.76808581      -0.99096029       1.12505755       0.80206230       0.03961087       0.00100104
H        2.21788326       8.00987256      24.74096287      -0.20350988       0.05330775       0.20376371      -0.37037589      -0.20697150       0.22672384
H        0.78030133       7.83348680      25.45195386      -0.17487334       0.03473367       0.12561390      -0.16369070       0.19565239      -0.29598307
O        2.95053129      12.53263631      27.30936278       1.31541490      -0.55870016      -0.36431563      -2.22783099       1.29535198      -1.58309502
H        3.72959305      12.67069569      27.77632414      -0.15041941      -0.00673518       0.14459555       2.66530196       0.28709424       1.43373864
H        2.73069261      11.61007416      27.31272731      -0.00063337      -0.17682589      -0.09562260      -0.21598228      -1.33679664      -0.02200568
O        5.43171416       7.56289682      25.99821051      -0.64348464      -0.63935968       0.98060979      -0.17167927      -0.90469833       1.14381117
H        5.30089185       6.83949401      26.67777223      -0.22136517       0.11803689       0.27890378       0.06282086       1.05197874      -0.85859104
H        6.21313340       7.23230112      25.55798026      -0.00514527       0.25474155       0.23739457       0.64985322       0.04485345      -0.25001858
O        0.73177428       8.92674215      23.08418200      -0.00755435      -0.62709603      -0.51784490      -1.87925864       0.61815085       0.04401772
H       -0.09903287       9.20674213      22.61981193      -0.09130835      -0.13113099      -0.04005745       1.14704503      -0.50266462       0.57459286
H        1.30997389       8.63425219      22.38755577      -0.14935317       0.08789301      -0.03983921       0.47238409       0.02372833      -0.85203284
O        4.91567924       9.26788102      21.27391789      -0.64733149       0.71840719      -0.16394203       0.07142121       0.75066442       0.15809756
H        5.44625457       9.00777633      20.51853372      -0.24117723      -0.01619534      -0.26609929       0.12387025      -0.17636311      -0.57035121
H        4.27408543       8.57300257      21.40438782       0.03348694       0.05261924      -0.12770476      -0.32520715      -0.54315149      -0.11348812
O        9.14848500       9.55394505      20.99569186       0.28283328      -0.37491536      -0.36664630      -1.10921782       1.21702862       2.13371856
H        9.24795596      10.53894204      20.85458533       0.01669541      -0.13927147       0.17555961       0.10042122      -0.69319319      -0.32604808
H        8.66065207       9.59158213      21.89141694      -0.04849487       0.07104362      -0.00513772       0.88954837      -0.60061406      -1.77802829
O       11.03308100       8.45607775      24.28665053      -0.05532553      -0.40658838      -0.83418976      -0.74550831      -2.29774994      -1.43831483
H       10.21066437       8.10901835      24.70965693       0.07353463      -0.05795747      -0.01366554       0.20750196       0.72359925       0.20479375
H       11.05881727       7.69437954      23.57782137      -0.15416917       0.07237810       0.03067777       0.47592248       1.66319228       0.94782776
O       12.40623384      11.81754000      25.95621934       0.33636138      -0.30812627       0.23531416       2.00131769      -0.31115270      -0.11558799
H       11.79714012      11.40884132      25.34704129      -0.00568215      -0.10589206      -0.14022820      -0.40903886      -0.34606856      -0.67640352
H       13.32757063      11.64699797      25.56943993       0.10691646       0.01627220       0.01815799      -1.34518451       0.16298256       0.59743831
O        8.19883767      11.26914269      24.62499711       0.15171000       0.45371439      -0.88047256       0.14759520       1.53515947      -0.78749655
H        7.69044473      10.60369002      24.10837915       0.12887780      -0.15383968      -0.08150243       0.21822231       0.48929968       0.08937829
H        8.21032346      12.14061379      24.10890931       0.30472848       0.16199638      -0.03584013      -0.61440963      -1.82318546       0.40314621
O       11.72132242      13.10711734      22.08800547      -0.48877152      -0.32764244      -0.24022138       0.13874227      -1.28444885       0.04624106
H       11.51224495      12.29928485      22.61681795      -0.24447331      -0.08946224      -0.03512357       0.17939891       0.40360629      -0.38578941
H       11.36952070      13.79852693      22.65093644      -0.03434735       0.24162312       0.02534701      -0.14387356       0.74845957       0.05651596
O       10.66071156      11.11775951      23.55632545       0.63491387      -0.20023672      -0.21105346      -0.24798270      -1.03612692       0.56045053
H        9.77626916      11.20142763      24.01559032      -0.06251818      -0.01657841       0.09559149       0.99953835      -0.45435952      -0.47228419
H       10.84702305      10.14010570      23.54219479       0.00459901       0.25088264       0.20815422      -0.35452922       0.99900135       0.24374113
O        7.66041015      13.08896650      22.37515380      -0.11298887       0.98108857       0.32029044       1.11126302       1.12359917       0.37607777
H        7.71094646      14.09072181      22.42842538      -0.06316248      -0.03253450       0.38239108      -0.73384390      -1.40434745      -0.00377494
H        6.78279557      12.79295213      22.12448625      -0.05306388      -0.16639284      -0.18887212      -0.68648229       0.50510384      -0.11924027
O        8.63095035       7.41176917      25.44894285      -0.33720784       0.75040098       0.45723606       0.45700057       1.49874962       0.85255686
H        8.99787498       6.61373566      25.84505846      -0.04159926      -0.06900156       0.06431817       0.01102709      -0.17142439       0.20116392
H        8.93449197       8.16927847      26.06809416      -0.12775504       0.07390896      -0.19294358      -0.63197172      -1.27771686      -1.03713533
O        9.47605661      12.23700079      27.39477661      -0.11837366      -1.71140856       0.22732102       0.50556166      -0.47727043       0.63533775
H        9.27701701      12.99292211      26.81111219      -0.16975517       0.19077383       0.02326909       0.74240728       0.19548265      -0.12500649
H       10.43675958      12.16915412      27.60307248       0.14041355      -0.00221304      -0.18402028      -0.97009179       0.54376169      -0.45669464
O       13.11550155       7.72553140      25.87319248       0.39432391      -0.35599420       1.09320492       0.08224480       0.41034783      -1.57807276
H       12.37483525       7.96242364      25.24030681       0.06796254       0.08341183      -0.01482316       0.61551784      -0.26150894       0.72653000
H       13.93311985       7.77476301      25.29654432      -0.16816600      -0.00535741      -0.06316332      -0.88450774       0.02876843       1.31246083
O        6.97086174       9.15983031      23.15100459       0.63255239      -0.27273692      -0.35726493       1.27779042      -0.90442206       0.73814454
H        6.31384888       9.26678582      22.47780065      -0.09523155      -0.02530958       0.18271686      -1.08984801       0.22236216      -0.71164700
H        7.16364377       8.19366845      23.13012727      -0.00195142       0.15397621      -0.22509492      -0.03596199       0.68117048       0.08256145
O       11.95165064       9.11501072      21.31940505       0.02977585      -0.42963663       0.03265948      -1.93438011       0.33111155       0.06500355
H       10.95870431       9.28959741      21.22685459      -0.25136680      -0.25774953      -0.27603221       1.44782138      -0.21259266       0.22929234
H       12.04413488       8.28364845      20.82104654       0.11710551      -0.12025042      -0.38411305       0.37277550       0.31982564      -0.22799655
O       15.72182091      11.01951212      21.16332073       0.95266960      -0.16861943       0.32522856      -0.19635814       0.12355638       0.55590783
H       15.47291926      11.89407786      21.52290595       0.10080810       0.07342013      -0.00045815       0.21104773      -0.20156771      -0.09855033
H       15.39458574      10.40420541      21.84512575      -0.04912753       0.06378474      -0.04629615       0.00686337       0.18079635      -0.28089152
O       17.63191537       8.68337205      23.53423002       0.32424750       0.46432729       0.27514878      -0.31694793      -1.47847501       1.22299068
H       17.78297821       8.00650068      22.84987460       0.08416029       0.19633956       0.31475015       0.13081106       0.72362796      -0.30484693
H       17.70951569       9.59996919      23.31607157       0.31711533       0.07164668       0.06829097       0.08192646       0.69726143      -0.79423684
O       19.35907556      12.02296916      26.11224487      -0.75767738       0.65283845      -0.21579494      -0.92699218      -0.43440887       0.78273520
H       19.25003041      12.93445222      26.38996209      -0.16403019      -0.01416729       0.06894283      -0.21435167       0.51192061      -0.11849541
H       20.17705921      12.03562178      25.64401166      -0.07815383       0.33834515       0.10053989       1.20006109      -0.45815842      -0.81802418