2592
Lattice="23.41576045692906 0.0 0.0 -9.186723157844817 21.537684039817904 0.0 3.959811761932253 5.993391301186548 43.31815359936935" Properties=species:S:1:pos:R:3:momenta:R:3:forces:R:3 energy=-407.55856948763636 stress="9.77181328464669e-05 -0.0002557320650669322 0.0008155420455851337 -0.0002557320650669322 -0.0005723342918974298 -0.000567868425723645 0.0008155420455851337 -0.000567868425723645 -0.001504026109131948" free_energy=-407.55856948763636 pbc="T T T"
O       13.31119146      17.79484595       4.76633993       0.66487942      -0.40796209      -0.38234359      -0.68976044       0.61728821      -0.01812889
H       13.59035252      18.54143280       5.35531220       0.00799671       0.00854736      -0.14380397      -0.45709243      -0.72651404      -0.30917312
H       12.41151812      18.03759344       4.41260995      -0.06286877      -0.11226127      -0.24184116       0.97385667       0.01297101       0.68025941
O        0.09390750       3.62498251       1.89029227       0.07540400      -0.36996934      -0.23583216       0.23491739      -0.20298917       0.19982751
H       -0.48079268       2.89556869       2.17663584      -0.02524223       0.12769383      -0.27389126      -0.26780543       0.32009964      -0.17847495
H       -0.37383358       4.13982256       1.21636419      -0.17316803       0.00947291       0.14333923      -0.01036688      -0.07689486      -0.04539704
O        6.45946814       0.99198716       0.59221280       0.68149098       1.32131732       0.00934948      -0.80738891       0.23095157       0.52781554
H        6.02404652       0.12765997       0.58257442      -0.06782078      -0.07191172       0.02289291      -0.07819313      -0.07663826      -0.21871908
H        6.02440912       1.38662187       1.39177378       0.21257286      -0.02621171      -0.15410106       0.62864169       0.08168837      -0.72109305
O       12.69530050      21.23003979       4.02317620       0.26351865       0.03084622      -0.17381416       1.35244583      -0.24447845      -0.11930708
H       12.09712696      20.49931464       4.24827219       0.26373779      -0.17170340       0.19913449      -0.06212117      -0.20207879      -0.05729056
H       13.61629449      20.85716444       3.88201710       0.15519265       0.17224143       0.17952633      -1.14237474       0.19471116       0.22999162
O       19.42627692       4.69849707       1.64205328      -0.38824486      -0.18790446      -0.22135056       0.23093703       0.33888526       0.44247508
H       20.04198604       4.90380022       2.37551528       0.09221540      -0.24035130      -0.16890988      -0.27155676      -0.18070869      -0.16669259
H       19.96035029       4.88470544       0.87118847       0.13413491       0.11591180      -0.14920136       0.09669433      -0.07265120      -0.46051766
O       -6.10662157      21.76273700       2.71001146       0.97217872      -1.19307655       0.17823916      -1.34078075       1.01458640       0.88887003
H       -6.42236244      22.54262354       2.21723731      -0.04473872       0.01096064      -0.14851929       0.48752399      -0.23197182       0.06875518
H       -5.63865907      21.17880711       2.13152263      -0.12789638      -0.11006104      -0.10092008       0.86331814      -0.49506647      -1.00211948
O        2.04337598       6.03886058       0.86810628       1.68489687      -1.35601712      -0.96872527      -0.03298744      -0.13141786       0.43891350
H        2.87029723       5.76054890       1.29458781      -0.07643598       0.02505532       0.25186763      -0.01305224       0.13589308      -0.21611243
H        1.95504991       5.36692854       0.14535135       0.05521001      -0.07346467      -0.05027438      -0.09682044       0.48345397       0.19106195
O       -8.19782541      20.09512959       3.60202847      -0.61535866      -0.54576253       0.14889144       1.43751419       0.09864784       1.25539402
H       -7.53002772      20.77356052       3.31917691      -0.33234978       0.14921646       0.04445584      -0.60373005      -0.60200498      -0.10610882
H       -7.72891818      19.67577009       4.39379855      -0.20474529      -0.22314462      -0.03052174      -0.94521569       0.45397380      -1.08855962
O        9.93756433      22.23121792       5.25410356       0.21809466       0.18132570       0.59112512       0.13619304       0.48577995       0.06792153
H        9.82410109      21.87867644       4.36422165      -0.08977510       0.01999473      -0.02879023      -0.02357407      -0.39304645      -0.40660162
H       10.12251037      23.16663000       5.05491912      -0.20046639       0.26725616      -0.00897026      -0.15445000       0.08539060       0.46243277
O        2.70080415       2.70225864       1.28728594      -0.78201762       0.38508931      -0.26081028      -0.78247253      -0.92901338      -0.00214496
H        3.39550151       3.35745013       1.27919995      -0.13288241      -0.16026556      -0.07723449       0.58528909       0.69242377       0.26356763
H        1.85910014       3.12244924       1.53559312      -0.10879492      -0.17259554      -0.26767070       0.16545834       0.05106782      -0.14489596
O       -4.92629622      19.41379613       4.06016177      -0.89680156       0.15647850       0.68398393      -0.13205543      -0.02067379      -0.70839686
H       -5.56156812      19.03950799       4.69145554       0.06469675      -0.40362039       0.26446066       0.05143832       0.24009637       0.13072846
H       -5.36477099      19.35359402       3.16767779      -0.18227807       0.22743311       0.11015728       0.66203457      -0.32858776       1.00324675
O       21.18139391       1.85909934       2.62040135      -0.09609879       0.49544774       0.01857702       0.78841741      -0.75763340      -0.37818213
H       21.39995003       1.01919163       3.10496354      -0.16463016      -0.18502310      -0.10722521      -0.31268940       0.75089495      -0.17587593
H       20.66611964       2.42149125       3.19212886      -0.07176495       0.03095574      -0.27516040      -0.44508009       0.29233701       0.49677974
O       -2.37040110      17.93372862       5.01161900       0.00239444      -0.21768758       0.43526722      -0.30979823       1.12408408       0.53712709
H       -2.12316557      18.63700547       5.66422052      -0.25551861      -0.21682382      -0.08690936       0.26446321      -0.94741650      -0.22248470
H       -3.22982992      18.26923405       4.72592682       0.02976605       0.53513682       0.04446477      -0.24075651      -0.07799808      -0.56728946
O        7.78816956       3.57670274       2.20346556       0.31200949      -0.44747957       0.07695733      -0.74608808       0.76666483       0.23778299
H        6.91857312       3.34439486       2.59836483      -0.10105378      -0.07666509       0.16052844       0.48282994      -0.02343455      -0.44377434
H        7.64411847       4.19023939       1.45885696       0.15543609      -0.00259132      -0.09090625      -0.33133702      -0.38966910       0.08185576
O       12.67744691       2.06597459       0.39025841       0.65322538       0.23283965       1.02021677      -0.09996543       0.39836540      -2.46877247
H       12.55682333       1.15503625       0.13008506      -0.02954181      -0.01302614       0.00169461      -0.05848847      -0.46766566      -0.00150915
H       12.72822956       2.06756191       1.32202026      -0.07648408      -0.32614402       0.07243647       0.40937085      -0.11152928       1.84248049
O       -2.80250418      21.32900660       4.00769695      -0.02587421      -0.44742835      -0.52502983      -0.44836467      -1.40277929       0.82263012
H       -3.45139747      20.61447981       4.29167161       0.00230521       0.05574840      -0.11016472       0.73819320       1.00515639      -0.78940101
H       -1.93067842      20.87549693       3.92329031      -0.37208311       0.11152347      -0.30643921      -0.40639533       0.12518979      -0.31900531
O        4.56144894       4.71818358       1.31823954      -1.03679248      -0.02472266       0.12706311      -2.27524749      -0.59815180      -1.62336024
H        4.89934168       4.93683538       2.14284008       0.11044182      -0.07759514      -0.31010322       1.02569096       0.61011152       2.82679891
H        5.30421521       4.76639524       0.73914178       0.08625025      -0.20028134       0.01194697       0.97251223      -0.15580062      -1.11879903
O        1.92026276      21.50053821       2.86318012       0.09824441       0.32044345      -1.22493726      -1.74817180       0.81742547       1.83405616
H        1.78525174      22.44738474       2.70936913       0.16135447       0.26725030      -0.04674388       0.11791688      -0.18773723      -0.47578464
H        2.50662389      21.11604995       2.25071832       0.02698459      -0.17806882      -0.06099899       1.22768382      -0.33187497      -1.60604827
O        9.52830962       6.29820855       1.31713891       0.19306086      -0.18007641       0.11577638       0.79926529      -0.75748895      -0.87934933
H       10.27654762       5.82217225       1.72779948      -0.01067960       0.26167536       0.15337960      -0.35662725       0.30399828      -0.28922739
H        9.55722020       6.04511213       0.34191327       0.00726928       0.08213748       0.04058043      -0.23968753       0.20458573       1.09752324
O       -0.44013093      19.97578865       3.35129837      -0.20868024      -0.05722981      -0.09047530      -0.44568090      -0.70785300       1.23514086
H        0.29517498      20.51026001       3.06669437      -0.04483860      -0.12767751      -0.01873337       0.65128317       0.46059612      -0.30596135
H       -0.05974831      19.43817270       4.08764387       0.22378839      -0.23185492       0.00684613      -0.43985096       0.39031406      -0.63847109
O       -5.75314685      22.18158787       5.42575785       0.29968829       0.81558919      -0.55346306      -0.20232019      -1.53036639      -1.69041459
H       -5.79048683      21.87947101       4.45227538       0.12256568      -0.10033131      -0.26580819       0.10564293       0.41377023       1.75692426
H       -5.69510513      23.12522284       5.35019047      -0.11812809      -0.10816082       0.08309932       0.10540793       1.19933763      -0.01298124
O       10.15230823       2.70609171       2.39882412       0.30105667       0.02645291      -0.49580599       0.67878159      -0.05208284      -0.54233173
H       10.70710970       3.43495197       2.05697897       0.01151775       0.11502054      -0.04909505      -0.23320684      -0.50636071       0.34057557
H        9.22163715       3.00256088       2.31587409      -0.02511528      -0.37404690      -0.15236695       0.24901216      -0.08049162       0.19517046
O        3.27493796      18.85438576       4.52610344      -0.50384660      -0.43447080       0.19220920       0.42843266       0.09041661      -0.10601148
H        2.47967177      18.79353643       5.06174315      -0.19138280      -0.01687623       0.24654498      -0.50218498       0.02117677       0.44972435
H        2.89878959      18.72456267       3.65536905      -0.20000558       0.08543885       0.16496063      -0.27247903      -0.15492317      -0.59105772
O        5.52387899       2.20511907       2.92101044      -0.39866340       0.42442608      -0.34192221       1.72915938      -0.52882564      -0.75480217
H        5.79317910       1.39468865       3.37720702       0.03972192      -0.11305615       0.13589988      -0.12797744      -0.04507537       0.11521816
H        4.70143696       2.47839271       3.26924073       0.00395442      -0.07029027       0.16899261      -1.47385405       0.54259015       0.78691486
O        5.70092942      17.97624927       4.95546817      -0.71762965       0.49535958       0.12060369      -0.46174674      -2.54764362      -1.51247805
H        5.91473630      18.73849997       5.43856096       0.03713035       0.15005907      -0.08749708       0.18386992       1.65131984       1.42540909
H        4.73004120      17.94244056       4.82560562      -0.00723031      -0.27220014       0.04040289       0.46415155       0.77675556       0.13495741
O       15.37103085       3.54691375       1.98535651       0.64119601      -0.21674601      -0.50575150       0.48796426      -0.65113332       2.11908351
H       14.73333577       3.05880017       2.58673915       0.10053303      -0.07751852      -0.09175501       0.62097452       0.48110514      -1.47930919
H       14.96418196       3.80132905       1.16820720       0.32856787      -0.00831927      -0.11633778      -0.51755391       0.27626199      -0.28592193
O       21.02674104       1.71290292      -0.13521693       0.49139525       0.69836385       0.43013904      -0.00695119      -1.38023698       0.47653578
H       20.89860666       0.78854149      -0.46164371      -0.05993893      -0.15431141       0.18629358      -0.09782276       0.84634593       0.52824289
H       20.85437577       1.62000092       0.84117035       0.07412824       0.21334043      -0.11057379       0.38328092       0.29453300      -0.75353134
O        4.80245946      21.15663621       4.41916838      -0.30901303      -0.68866029       0.16768549       0.75636124       1.74946166       0.01829612
H        4.31472955      20.35359601       4.50623169      -0.02866043       0.13680920      -0.12135516      -0.56204951      -1.27290935       0.15983542
H        5.74926947      20.96760998       4.34747931       0.21074619       0.28423926       0.05741998      -0.20810712      -0.40325282      -0.32232702
O       12.23217716       4.60923974       2.04715006      -0.64772261       0.63141411       0.15476475      -0.53892092       0.10719819       0.55902879
H       12.61125772       5.14926059       2.74901678      -0.13661464       0.11470898       0.20525176      -0.09014465      -0.19927123       1.01329485
H       12.68042209       4.99649253       1.32124196       0.08145062      -0.12845058      -0.23053899       0.63387001       0.14381762      -1.70031407
O        9.45220014      21.60796682       2.63070447      -0.40772578       0.24923069      -0.50144529       0.43314828      -0.11599701      -0.44895451
H        9.11771131      22.42858849       2.22402408      -0.02016258       0.19650242       0.03379794       0.22330618       0.01497011      -0.03900781
H       10.20622390      21.32222329       2.05860582       0.17603805       0.22162969       0.12048220      -0.83497916       0.07276002       0.28091696
O       17.13913605       6.51786117       0.99819170      -1.00441732      -0.84982641      -0.33412059      -0.13219765      -0.78837801      -0.41084373
H       17.97328984       6.13538621       1.31024676      -0.17615553      -0.18807842      -0.33142614      -0.00001856      -0.04761670      -0.09277681
H       16.83012947       5.86488156       0.32262086       0.19846415       0.12253482       0.04281883       0.31790441       0.46519097       0.60164495
O        7.27643487      20.09945165       3.65836952      -0.90909488       1.32179387       0.69957155      -0.87536548       1.03050028      -1.11248443
H        7.94435971      20.68077199       3.27030971      -0.02908653      -0.05509785       0.31562235       0.24845073      -0.15319892      -0.09502369
H        7.65157023      19.69340926       4.40887602       0.37495344      -0.05076432       0.51009187       1.10998461      -0.91203022       1.48843688
O        2.17212844      22.09162123       5.51790764       0.23459490       0.20225761      -0.92959843      -0.34112664       1.79755124       1.06820046
H        1.97717158      21.72740123       4.65988516       0.22167818      -0.05350315      -0.20184114       0.14179917      -0.05790547      -0.94078638
H        2.20644344      23.09020036       5.44159696      -0.13833342      -0.02246816      -0.07933791       0.03273818      -1.52297017      -0.31732498
O       17.70931437       2.37021424       1.25926814      -0.24756673      -0.24868939      -0.74659387       0.68057081      -0.44512901      -0.20760542
H       18.31416175       3.12014416       1.08176809      -0.11030869       0.00598137      -0.18610865      -0.71201389      -0.32227601       0.58921062
H       16.87319906       2.68163337       1.64781782       0.16838598       0.01779685      -0.11892217       0.02591506       0.55183549      -0.31858280
O       10.88041706      19.12261435       4.32115437      -0.67956028      -0.12059713      -0.48858166       1.29256734       0.58762718       2.00848723
H       10.20669704      19.12130800       5.03488956      -0.12722798      -0.07948588      -0.02975130       0.09263443      -0.27296713      -0.59504850
H       10.45973664      18.99262787       3.49856891      -0.00488225      -0.11423759       0.07878074      -1.11896820      -0.34082566      -1.57377498
O       13.46883911       1.97210325       2.88639418      -0.49946940      -0.11930769      -1.10386935      -0.32948766      -0.16052573       0.62049802
H       13.44067630       1.18506730       3.44603919       0.07765301       0.03813566       0.22328592       0.41591390      -0.39879679      -0.07241780
H       12.83677304       2.54452270       3.32888037      -0.20520485       0.08331945      -0.03522716      -0.32033975       0.50365255       0.26191958
O       19.47808477       3.51338113       4.64508569       0.20866925       0.18765255       0.54943339      -1.19625512       1.86359505      -0.00413434
H       19.96968425       4.22352451       5.13628547      -0.13192898       0.12649604       0.04468076      -0.49646623      -1.01831347      -0.31835796
H       18.58046734       3.98439985       4.44788144       0.06289285      -0.02957782      -0.11775401       1.77341948      -1.16214834       0.18236503
O       -2.85954829      11.23799301       2.20760278       0.67199616      -0.78247449       0.23091827      -0.06243885      -0.40821027       0.33881580
H       -3.58230198      10.65746577       2.49436286       0.20038273       0.23103183       0.02248854       0.00618113      -0.04906069       0.36852814
H       -3.30001215      11.84437305       1.61059002      -0.03557437      -0.01019429      -0.30055279      -0.13255673       0.85324782      -0.60598578
O        2.59708030       8.73724686       0.55358758       0.81754628       0.11692186      -0.60941865       1.40313654       4.06674604       0.10185550
H        2.35140390       7.86327745       0.61983257       0.17748792      -0.17865670       0.12979565      -1.06136748      -3.26097139       0.66403914
H        2.71530352       9.14997362       1.45437614       0.20968055      -0.08830020      -0.02650524      -0.31078857      -1.02541215      -0.77733204
O       18.72342665       7.19252690       3.95186605       0.45574001       0.52750180      -1.03836347       0.48607026      -0.55315193       0.04177620
H       18.13227252       6.42778567       3.89397082       0.04203172       0.05583789      -0.14456660      -0.65201113       0.10329078       0.16824337
H       19.57659363       6.73662289       3.91353249      -0.03670795       0.16500558       0.19557042       0.41212965       0.38439820      -0.05946217
O       16.66507121      12.23093962       1.56040267      -0.83266441       0.62055872       0.21420660       0.45164724      -0.20002476       0.92934704
H       17.39293176      12.36278066       2.19717470      -0.13361208      -0.24987003       0.08706039      -0.42811650       0.31243248      -0.00845135
H       17.08226294      11.93663623       0.74981717      -0.02452567      -0.07148335      -0.06683895      -0.11596878      -0.00681434      -0.50678098
O        0.11070924       7.37342919       2.69769471       0.41392700      -0.39503676      -1.82247644       0.02039804      -1.23718205       0.63995661
H       -0.17312416       8.17754419       2.27859778      -0.06592895      -0.08407386       0.12131414       0.01293710       0.70305284      -0.77794453
H        0.62061379       6.78935117       2.11037445       0.09996107       0.24545106       0.07596256       0.04673273       0.62531159      -0.27622054
O       -0.95422745      13.31752270       1.24214656      -0.15209830      -0.14612585      -0.47205536      -0.44396700      -0.22447415      -0.19103644
H       -0.14830931      12.97422204       1.63239288       0.10369395      -0.00746239       0.22996322       0.36987109      -0.09401419      -0.20302823
H       -1.16807866      12.68573939       0.53181339       0.20047415      -0.00645498       0.18770100       0.03661728       0.54247107       0.05394003
O       -2.00437043       5.74500661       3.44743874      -0.14280488       0.37911631       0.35991986       0.39659654       0.60942973      -0.31959741
H       -1.32102889       6.34750299       3.05024613       0.27155312      -0.29535595      -0.16175289      -0.61950703      -0.49325274       0.38145512
H       -1.53065720       5.27870776       4.14677998      -0.23147636      -0.01057811      -0.14821167      -0.10525861      -0.18219681       0.12081812
O       15.99903839       7.93333990       5.57620110      -0.00226862      -1.26806729       0.01107343       0.03426759      -1.07877773      -1.54418483
H       15.98061614       7.63790172       4.60464470      -0.02567337       0.19695742       0.00205853       0.02940967       0.23496425       1.46274954
H       16.24954935       8.85422339       5.51356523       0.07575107       0.03497986       0.21200474       0.14300219       0.85901523       0.10988120
O       -0.84809013       9.79871477       1.41212743       0.51281705       0.43064461      -0.91856350       1.83648677      -0.64917073      -0.89326809
H       -0.14470231      10.35240180       1.01344934      -0.01462845       0.04790342       0.11974064      -0.25812455      -0.38473484       0.41361854
H       -1.55123299      10.40281725       1.61246310      -0.14887738      -0.26675640       0.03073636      -1.16269824       0.58239210       0.37742771
O        1.19834375       4.65990796       4.33993852      -0.11114572      -0.33842421       0.64094542      -0.36128563       0.03737918       0.82484067
H        0.48289079       4.45074263       5.03148224      -0.09155510      -0.13585285      -0.15184609       0.82396661       0.30596277      -1.45431738
H        0.91403522       4.43127074       3.43944940      -0.10259962      -0.10997568       0.03124599      -0.59486743      -0.16130203       0.43353998
O       18.43342738       9.84344076       3.09931604       0.19185387       0.13746459      -1.03084717       0.73060760      -0.95317136      -0.51876521
H       18.58849998       8.92606723       3.43546079      -0.04854863      -0.02128189       0.01399595      -0.56764475       0.82657855      -0.06854149
H       17.69885990      10.26251699       3.55177288       0.08417325       0.00556877       0.16124891      -0.46137793      -0.15796005       0.72333768
O        3.59509494       3.37088889       4.62559440      -0.40801736       0.26626813      -0.22715783       0.29899473       0.10777565       0.42317278
H        4.08295334       3.97327358       5.22656538      -0.24904251       0.08582626       0.14939725      -0.53730337      -0.20440314      -0.56338998
H        2.69985221       3.75018832       4.51240984      -0.11286093       0.20105549       0.29469016       0.27125564       0.09219810       0.19560562
O        4.86316201      10.94329406       2.24766335      -0.58319091       0.54415856      -0.60568504       0.69703777       0.77840533      -0.61263971
H        4.22971106      10.37387472       2.68568990       0.06925335       0.30209604       0.04219468      -0.59556587      -0.15468595      -0.07578126
H        4.45999492      11.41896436       1.47817570      -0.25990861       0.04017803      -0.15906784       0.13249530      -0.65724547       0.72704146
O       10.06358086       8.97429287       0.59684078       0.46446358       0.31518137      -0.75115891       0.35041663       0.26449443      -0.19622688
H       10.11080276       8.01346763       0.69261082       0.10451734      -0.14881770       0.12750918      -0.30858685       0.15160077       0.37753752
H       10.05438003       9.33649839       1.50089617       0.13815753       0.06946614       0.03170147       0.14598708      -0.27524239      -0.20773043
O        3.01313156       7.00781882       4.07693498       0.22146709      -0.01568928      -0.12123155       0.50919080      -0.03697383       0.24418934
H        2.37170203       6.28287614       4.07879403       0.26897548      -0.03488067      -0.12524707       0.31438830      -0.27447140       0.10753035
H        3.92502023       6.68753173       3.94293774       0.14779015      -0.00790619       0.06341423      -0.50558057      -0.47811426      -0.04208822
O        1.38646214      11.82598855       1.42438182      -1.29302087      -0.72082165      -0.46452790      -0.31171549       0.15615507       0.95645371
H        1.69958667      12.18387823       2.28683685       0.22520808      -0.04203822       0.05303905       0.17690707      -0.35919127      -0.66409323
H        2.14389692      11.82622940       0.83025567       0.29879473      -0.11589374      -0.02198362       0.33980894       0.25899611       0.08320725
O        7.71759897       7.41929251       3.16888595      -0.13185406       0.55596690       0.04273718       0.36238829       1.27285969      -1.45087997
H        7.49330578       8.29763950       2.72797488      -0.03775884       0.05446497      -0.30047719      -0.28805655      -0.95408371       0.82275416
H        8.37482310       7.11403690       2.50498998       0.22298603      -0.27735876       0.08577717      -0.11195605      -0.38566470       0.50631730
O        6.58886005      13.16795512       1.78377119       0.13533770       0.04468603      -0.56266333      -0.25849512       0.37940904      -0.33761889
H        7.42425272      13.40474975       2.16758217      -0.11754785      -0.07479711      -0.15172423       0.61652363      -0.05458247       0.73812853
H        6.87829464      12.63855809       1.02751811      -0.16744856       0.14719200       0.15097452      -0.35979283      -0.38612639      -0.24004138
O        5.65437758       5.62799212       3.62000752      -0.38428536      -0.85746081       0.07455130       1.04210857      -0.01367884       0.69670123
H        6.41009447       6.17449566       3.30294445      -0.03228345       0.19114386      -0.08436061      -0.58815400      -0.00084584       0.20054611
H        6.07083521       5.13496544       4.37802367      -0.10079037      -0.41828976       0.05272204      -0.58908703       0.25963923      -0.56078767
O        0.36060849       7.88198757       5.38439150       0.32212270       0.82268814      -0.95229478      -0.12747238       1.04070733      -0.72036583
H        0.24594170       7.54652422       4.47049494      -0.12902754      -0.00987190       0.08266753       0.16323117       0.02329570       0.43545674
H        0.46181861       8.86357676       5.22206782      -0.03740495       0.05891329       0.19185986       0.08878722      -0.90396858       0.37680830
O        7.15223186       9.62829738       1.61084315      -0.79406875      -0.48255334      -0.39592573       0.11191105       0.27232551       0.66582530
H        7.91081184      10.16062531       1.95785328      -0.02855599      -0.16531202      -0.15277402      -0.87330786       0.08543809      -0.66311977
H        6.30663441      10.12951561       1.78120912       0.06797638       0.05816647       0.03868989       0.62795623      -0.28175046       0.04851255
O        9.37718550       4.96550618       4.45574614       1.80324410       0.31970773      -0.13320423       0.27657088       0.17131432       0.35780036
H        8.74977326       4.95373698       5.18614996      -0.07194440      -0.21150998       0.01170964      -0.16508121      -0.25948773      -0.01669777
H        8.85018540       4.83287778       3.66739249      -0.00388002       0.10537384      -0.25327735      -0.27182792      -0.36191853      -0.32449482
O        2.85106524       9.42641860       3.14889063      -1.11822427      -0.12092343       0.31303426      -0.04127062       1.13791595      -0.04984734
H        2.77705945       8.61239525       3.64165371      -0.04611525      -0.24493402      -0.02677663       0.01375303      -0.87124532       0.08045139
H        2.24358890      10.03569090       3.59241720       0.18336575      -0.05495930      -0.17834790      -0.19189343       0.06974713      -0.00012450
O       11.84074768       3.39996311       4.73655862      -0.22810971      -0.02295937       0.64626143       1.24103560       0.36228645       2.77761538
H       12.17230241       3.80158805       5.61448274       0.07791055      -0.04608164       0.08393128      -0.18517747      -0.68999542      -1.85064658
H       10.97753033       3.79064804       4.78662805       0.25323926      -0.37508062      -0.10717998      -1.20944810       0.18659468      -0.85325860
O       12.67984763      11.09952640       2.30681096      -0.06465296       1.15317375       0.29236391      -0.55738728      -0.44476657       0.56565601
H       11.87083927      10.72617316       2.71859293      -0.06098505      -0.03048065      -0.13167187       0.45390522      -0.10863909      -0.18497571
H       12.34079945      11.55040404       1.53144588       0.17116840       0.11447134       0.03841405      -0.21039850       0.25795967      -0.31211718
O       17.80126007       9.12529812       0.46440924       0.88957154      -0.92257167      -0.58556411      -0.45925004      -1.91842552       0.54007659
H       17.44792366       8.18517919       0.58352363       0.04621574       0.15240425       0.04167608       0.80066641       1.22236543      -0.51009734
H       17.95435730       9.39154825       1.38509534       0.05058229      -0.11965235       0.07040327      -0.00931735       0.25572874       0.13992914